TITLE = "Triangulation data"
VARIABLES = "X", "Y", "Z"
ZONE N =1000, E = 7749, DATAPACKING = POINT, ZONETYPE = FETRIANGLE
-1000 -1000 0
1000 -1000 0
0 1000 0
0.468398 0.285714 0
0.768212 0.024781 0
0.120975 0.80047 0
0.660054 0.480544 0
0.0416272 0.129887 0
0.532304 0.877865 0
0.0202338 0.0435804 0
0.158757 0.147832 0
0.00631733 0.964904 0
0.953459 0.4962 0
0.539415 0.305063 0
0.093234 0.660329 0
0.103092 0.0258492 0
0.955077 0.222877 0
0.309275 0.711966 0
0.0236518 0.51326 0
0.318735 0.934355 0
0.926481 0.128208 0
0.404187 0.185949 0
0.751518 0.602924 0
0.0621357 0.170873 0
0.304941 0.263588 0
0.580157 0.728385 0
0.464156 0.793023 0
0.464888 0.172674 0
0.282846 0.5403 0
0.638295 0.330424 0
0.00436415 0.105991 0
0.807154 0.0562151 0
0.639485 0.233619 0
0.913053 0.508347 0
0.26484 0.539598 0
0.0684225 0.965056 0
0.698294 0.111606 0
0.885464 0.463546 0
0.707694 0.508133 0
0.603381 0.0422376 0
0.408795 0.188971 0
0.921445 0.867824 0
0.009064 0.909055 0
0.942534 0.0282601 0
0.553575 0.106082 0
0.135044 0.273385 0
0.828669 0.814081 0
0.718101 0.483474 0
0.0805078 0.132786 0
0.376904 0.148137 0
0.704154 0.785913 0
0.714774 0.635853 0
0.559557 0.797449 0
0.34724 0.535813 0
0.0708029 0.819452 0
0.0454726 0.853603 0
0.764946 0.140599 0
0.834376 0.341075 0
0.40611 0.908261 0
0.452193 0.742882 0
0.382122 0.594165 0
0.0778222 0.239662 0
0.499008 0.235969 0
0.731712 0.870388 0
0.8399 0.485092 0
0.256813 0.213691 0
0.844813 0.992706 0
0.286325 0.111057 0
0.267312 0.164464 0
0.103336 0.711631 0
0.164403 0.81637 0
0.799829 0.620777 0
0.575823 0.761315 0
0.640522 0.433546 0
0.0489822 0.859279 0
0.0380871 0.433882 0
0.666189 0.561419 0
0.0459609 0.741264 0
0.729514 0.479354 0
0.774957 0.685904 0
0.760674 0.0114444 0
0.639943 0.693503 0
0.971221 0.556658 0
0.842921 0.461287 0
0.85992 0.347728 0
0.998688 0.706046 0
0.0931425 0.434706 0
0.30903 0.265938 0
0.325022 0.850124 0
0.192663 0.836879 0
0.112796 0.486984 0
0.775658 0.124973 0
0.584704 0.721 0
0.150029 0.696341 0
0.0155034 0.308176 0
0.806116 0.305277 0
0.967101 0.589099 0
0.144627 0.98236 0
0.149022 0.530839 0
0.4756 0.663289 0
0.656911 0.638478 0
0.409436 0.640431 0
0.743095 0.266518 0
0.0469985 0.61745 0
0.77752 0.362407 0
0.874844 0.648976 0
0.55388 0.172399 0
0.771569 0.746117 0
0.597888 0.942259 0
0.0318918 0.429395 0
0.633656 0.142552 0
0.814661 0.0100406 0
0.86465 0.251411 0
0.920591 0.881252 0
0.225196 0.624409 0
0.306711 0.600116 0
0.259133 0.484176 0
0.243141 0.0422987 0
0.781396 0.560106 0
0.518845 0.409894 0
0.9794 0.409711 0
0.602313 0.373974 0
0.109714 0.953001 0
0.163732 0.133457 0
0.447188 0.250862 0
0.86465 0.671133 0
0.641774 0.0589618 0
0.821375 0.987945 0
0.140141 0.188147 0
0.648701 0.597461 0
0.827906 0.202857 0
0.489792 0.0610675 0
0.548692 0.488662 0
0.938505 0.845607 0
0.656606 0.219977 0
0.260933 0.284188 0
0.258034 0.259865 0
0.82165 0.9223 0
0.299112 0.522294 0
0.121403 0.0294504 0
0.155309 0.8287 0
0.352611 0.558489 0
0.878994 0.790033 0
0.878231 0.332896 0
0.76162 0.745262 0
0.541154 0.74453 0
0.366527 0.287942 0
0.209632 0.741783 0
0.688894 0.411878 0
0.465468 0.390332 0
0.598437 0.80694 0
0.840907 0.787439 0
0.222083 0.336955 0
0.510575 0.610584 0
0.422163 0.23014 0
0.844996 0.0827967 0
0.0262154 0.0138554 0
0.731407 0.634693 0
0.965697 0.724631 0
0.0684835 0.0451979 0
0.978301 0.424909 0
0.341319 0.342235 0
0.0318003 0.557634 0
0.682363 0.243965 0
0.124302 0.17011 0
0.325297 0.422895 0
0.617847 0.538011 0
0.857631 0.372967 0
0.761498 0.221259 0
0.178137 0.161718 0
0.560137 0.0826746 0
0.566179 0.848384 0
0.645131 0.30079 0
0.767876 0.849239 0
0.303415 0.908017 0
0.506699 0.031373 0
0.320688 0.885556 0
0.323893 0.816614 0
0.795618 0.346141 0
0.155248 0.0757469 0
0.580798 0.835902 0
0.550432 0.0958281 0
0.507126 0.286508 0
0.941221 0.400433 0
0.0473342 0.649434 0
0.864681 0.704886 0
0.575579 0.742271 0
0.547899 0.787408 0
0.878506 0.340098 0
0.760094 0.557787 0
0.0750755 0.0415357 0
0.338542 0.104129 0
0.600604 0.941923 0
0.294748 0.999908 0
0.411115 0.643941 0
0.906888 0.651387 0
0.0654317 0.637928 0
0.704611 0.968017 0
0.839747 0.581988 0
0.753075 0.135716 0
0.53206 0.514206 0
0.141667 0.775445 0
0.112247 0.527482 0
0.0843532 0.267312 0
0.873989 0.938658 0
0.537431 0.522324 0
0.244819 0.482894 0
0.741081 0.982513 0
0.911039 0.564898 0
0.591082 0.13065 0
0.412793 0.0977508 0
0.247047 0.291452 0
0.866543 0.961272 0
0.882778 0.00448622 0
0.970428 0.610218 0
0.985809 0.750938 0
0.949309 0.864711 0
0.111911 0.315073 0
0.595294 0.41319 0
0.501022 0.561785 0
0.0605487 0.0595721 0
0.460494 0.9111 0
0.557939 0.245979 0
0.922514 0.291665 0
0.62624 0.881741 0
0.0812708 0.853664 0
0.116245 0.0105899 0
0.516831 0.222785 0
0.553667 0.347179 0
0.711173 0.576617 0
0.0351268 0.213233 0
0.363292 0.324442 0
0.313883 0.906247 0
0.409467 0.671682 0
0.230934 0.0304575 0
0.154515 0.850734 0
0.148473 0.822321 0
0.421094 0.298502 0
0.541093 0.000976592 0
0.122349 0.563158 0
0.401746 0.175848 0
0.164983 0.219886 0
0.618488 0.341685 0
0.0885342 0.578387 0
0.977721 0.493149 0
0.34727 0.46202 0
0.95117 0.88934 0
0.640706 0.840846 0
0.922025 0.000366222 0
0.199561 0.599414 0
0.00674459 0.666738 0
0.432844 0.220313 0
0.129124 0.502457 0
0.842372 0.665304 0
0.502091 0.0743126 0
0.611377 0.234687 0
0.174352 0.886959 0
0.773156 0.686697 0
0.797601 0.706503 0
0.365764 0.397595 0
0.270669 0.252937 0
0.479781 0.844478 0
0.416944 0.793054 0
0.604358 0.191015 0
0.351054 0.664937 0
0.178777 0.258644 0
0.69158 0.265511 0
0.75515 0.663045 0
0.275277 0.531907 0
0.67861 0.39845 0
0.530107 0.448622 0
0.69158 0.650319 0
0.162023 0.611011 0
0.36787 0.117527 0
0.313059 0.37672 0
0.783288 0.625996 0
0.845973 0.636555 0
0.328654 0.314096 0
0.912259 0.735191 0
0.0719016 0.172124 0
0.4597 0.574023 0
0.574908 0.216041 0
0.835383 0.426679 0
0.571886 0.0774865 0
0.140843 0.498795 0
0.415448 0.291147 0
0.495468 0.762841 0
0.696188 0.060213 0
0.864071 0.100162 0
0.942595 0.78222 0
0.605548 0.280404 0
0.807184 0.115299 0
0.398114 0.810297 0
0.645161 0.867244 0
0.69808 0.182775 0
0.892239 0.487472 0
0.387768 0.557909 0
0.146916 0.444502 0
0.769494 0.406384 0
0.364727 0.268715 0
0.561022 0.147465 0
0.0697043 0.542863 0
0.0497452 0.312143 0
0.989776 0.62093 0
0.060976 0.262917 0
0.0219733 0.356761 0
0.89697 0.00170904 0
0.934751 0.623676 0
0.902982 0.0965911 0
0.711753 0.906461 0
0.816614 0.259102 0
0.945463 0.746727 0
0.556475 0.603198 0
0.185125 0.323191 0
0.606464 0.116947 0
0.646657 0.947813 0
0.652303 0.378613 0
0.18952 0.759331 0
0.625904 0.0479141 0
0.967986 0.395184 0
0.81457 0.163945 0
0.661946 0.92346 0
0.190435 0.781182 0
0.694571 0.815363 0
0.617573 0.974303 0
0.342112 0.240608 0
0.0913419 0.743767 0
0.142918 0.465743 0
0.668142 0.852718 0
0.511093 0.637501 0
0.24012 0.126957 0
0.961852 0.732231 0
0.812372 0.249092 0
0.854244 0.952452 0
0.437971 0.577837 0
0.0578631 0.35197 0
0.467757 0.0242012 0
0.449599 0.970794 0
0.270486 0.515458 0
0.646443 0.260933 0
0.0802942 0.078341 0
0.881283 0.0847804 0
0.127079 0.0724509 0
0.42732 0.0665914 0
0.706473 0.605487 0
0.477584 0.579058 0
0.34547 0.661306 0
0.885708 0.145634 0
0.720176 0.972076 0
0.674398 0.540513 0
0.481338 0.165838 0
0.717734 0.366527 0
0.644917 0.220862 0
0.503403 0.393536 0
0.70275 0.757622 0
0.381451 0.437208 0
0.110721 0.200049 0
0.20542 0.0603046 0
0.309732 0.337291 0
0.772515 0.877743 0
0.936338 0.316904 0
0.968627 0.745811 0
0.378857 0.601062 0
0.0249336 0.61803 0
0.335917 0.916898 0
0.791894 0.347911 0
0.532609 0.732078 0
0.436995 0.220374 0
0.251503 0.287393 0
0.473006 0.492782 0
0.834132 0.716819 0
0.521897 0.727226 0
0.809687 0.286874 0
0.722037 0.1948 0
0.806604 0.286538 0
0.183569 0.133732 0
0.903836 0.598498 0
0.399487 0.14185 0
0.577776 0.483596 0
0.0174871 0.485519 0
0.90109 0.60918 0
0.879788 0.605426 0
0.149632 0.852962 0
0.736473 0.601245 0
0.474288 0.913511 0
0.539293 0.975768 0
0.79284 0.258583 0
0.721366 0.42027 0
0.559221 0.44261 0
0.369793 0.922086 0
0.566118 0.324717 0
0.696921 0.975463 0
0.436415 0.218085 0
0.716758 0.177618 0
0.961089 0.502487 0
0.532579 0.99057 0
0.938353 0.730857 0
0.14243 0.94998 0
0.67159 0.761193 0
0.168126 0.103092 0
0.781335 0.945128 0
0.414411 0.956023 0
0.488235 0.90463 0
0.664663 0.711966 0
0.0226753 0.927305 0
0.618732 0.0821863 0
0.318003 0.51268 0
0.3802 0.450026 0
0.64272 0.099765 0
0.398144 0.66979 0
0.328776 0.507645 0
0.270577 0.281808 0
0.251656 0.120029 0
0.315439 0.424787 0
0.218726 0.345592 0
0.315226 0.226203 0
0.921873 0.384442 0
0.341838 0.953276 0
0.611042 0.832881 0
0.0678121 0.704062 0
0.144658 0.157109 0
0.470046 0.921567 0
0.573321 0.5674 0
0.332224 0.510819 0
0.912626 0.323832 0
0.452712 0.841212 0
0.262154 0.00509659 0
0.963256 0.414258 0
0.926267 0.771142 0
0.66567 0.479293 0
0.69274 0.151433 0
0.792261 0.377087 0
0.92642 0.389935 0
0.0961638 0.893643 0
0.633168 0.877651 0
0.678213 0.404645 0
0.151006 0.704611 0
0.456191 0.0926847 0
0.624256 0.862209 0
0.683218 0.0174566 0
0.917264 0.126896 0
0.420759 0.321024 0
0.123814 0.157262 0
0.373486 0.34904 0
0.328593 0.834773 0
0.991211 0.969268 0
0.776452 0.380078 0
0.244972 0.868465 0
0.106723 0.276254 0
0.983337 0.109287 0
0.807825 0.529344 0
0.274331 0.727989 0
0.548753 0.298563 0
0.640919 0.654469 0
0.544298 0.426618 0
0.59447 0.735801 0
0.609027 0.901761 0
0.373821 0.144658 0
0.0575274 0.782739 0
0.29548 0.953642 0
0.106326 0.617786 0
0.621357 0.156621 0
0.934019 0.889248 0
0.350414 0.91934 0
0.0558489 0.514389 0
0.84048 0.338847 0
0.169347 0.934782 0
0.666066 0.494705 0
0.126225 0.823969 0
0.61916 0.0719321 0
0.188177 0.94644 0
0.258614 0.337992 0
0.221564 0.197455 0
0.91467 0.753807 0
0.988372 0.356304 0
0.554674 0.00161748 0
0.188452 0.583392 0
0.41673 0.709586 0
0.410718 0.192755 0
0.816797 0.654927 0
0.648061 0.731529 0
0.0359813 0.727042 0
0.533525 0.896847 0
0.694418 0.431532 0
0.953093 0.322062 0
0.517167 0.216498 0
0.1919 0.763726 0
0.899594 0.402356 0
0.269784 0.719382 0
0.177313 0.996307 0
0.622578 0.00915555 0
0.0077517 0.17304 0
0.785211 0.350902 0
0.769219 0.702628 0
0.233253 0.46086 0
0.383618 0.106723 0
0.0388501 0.711112 0
0.469588 0.824885 0
0.497177 0.874783 0
0.231727 0.171575 0
0.380047 0.990417 0
0.992401 0.365703 0
0.972716 0.876736 0
0.772485 0.413556 0
0.549852 0.329051 0
0.827082 0.126316 0
0.447737 0.528611 0
0.542711 0.0540483 0
0.387951 0.696005 0
0.601886 0.616474 0
0.209418 0.519913 0
0.82165 0.2125 0
0.664998 0.392834 0
0.572161 0.589679 0
0.438551 0.98413 0
0.181555 0.254128 0
0.0392773 0.182714 0
0.233558 0.203406 0
0.729057 0.940031 0
0.16364 0.762444 0
0.139073 0.0442824 0
0.0604572 0.804285 0
0.732658 0.358257 0
0.0786462 0.137028 0
0.769494 0.550523 0
0.36906 0.338023 0
0.928404 0.852657 0
0.93289 0.816279 0
0.244484 0.872646 0
0.305826 0.38493 0
0.517014 0.996582 0
0.478774 0.124729 0
0.844111 0.40904 0
0.960692 0.819697 0
0.440687 0.264382 0
0.390759 0.746117 0
0.396161 0.0392163 0
0.605304 0.0967742 0
0.52739 0.59798 0
0.566088 0.820734 0
0.983734 0.00265511 0
0.0563677 0.160558 0
0.760491 0.597919 0
0.550584 0.668233 0
0.776666 0.402722 0
0.164037 0.980438 0
0.673299 0.340068 0
0.0893277 0.135197 0
0.989044 0.335582 0
0.424909 0.710868 0
0.868618 0.816889 0
0.802667 0.56798 0
0.961028 0.644124 0
0.720573 0.47676 0
0.663198 0.00384533 0
0.986694 0.410016 0
0.365825 0.296762 0
0.18067 0.783532 0
0.857326 0.55092 0
0.539232 0.424879 0
0.541948 0.391552 0
0.171422 0.552171 0
0.629292 0.09888 0
0.0106204 0.543626 0
0.94998 0.784936 0
0.408765 0.779534 0
0.555071 0.220771 0
0.779504 0.337626 0
0.754723 0.345561 0
0.196539 0.823389 0
0.752647 0.98825 0
0.353343 0.116123 0
0.532334 0.833491 0
0.790033 0.312632 0
0.151708 0.16306 0
0.79458 0.649007 0
0.102176 0.403821 0
0.883938 0.682485 0
0.88818 0.0134892 0
0.271218 0.514298 0
0.483963 0.735771 0
0.225929 0.334544 0
0.823511 0.755608 0
0.732627 0.070925 0
0.979736 0.786401 0
0.354808 0.42201 0
0.18955 0.61977 0
0.710288 0.0564592 0
0.380902 0.169683 0
0.463759 0.259835 0
0.35786 0.542039 0
0.24366 0.809565 0
0.300333 0.160466 0
0.388684 0.359844 0
0.734367 0.480636 0
0.930906 0.11771 0
0.629353 0.32313 0
0.721427 0.0909757 0
0.77868 0.357158 0
0.104678 0.690054 0
0.119633 0.765648 0
0.0481277 0.964324 0
0.14893 0.623249 0
0.132939 0.254707 0
0.0904874 0.0185247 0
0.31251 0.543352 0
0.971099 0.451735 0
0.844691 0.281777 0
0.26072 0.538713 0
0.304086 0.979095 0
0.233528 0.55324 0
0.0807215 0.33076 0
0.70571 0.838282 0
0.271401 0.170171 0
0.306589 0.617512 0
0.369579 0.0232856 0
0.93936 0.238685 0
0.660543 0.548204 0
0.587146 0.379803 0
0.72805 0.640828 0
0.121311 0.249397 0
0.978149 0.487625 0
0.267983 0.312296 0
0.587207 0.347209 0
0.388836 0.571947 0
0.779809 0.341166 0
0.232612 0.940611 0
0.843074 0.0364391 0
0.313852 0.728751 0
0.78341 0.0997345 0
0.0744346 0.784936 0
0.0323801 0.805322 0
0.485031 0.317057 0
0.107303 0.677816 0
0.241646 0.926786 0
0.633473 0.0509049 0
0.21482 0.887906 0
0.633686 0.82342 0
0.306436 0.200171 0
0.491928 0.193548 0
0.37141 0.449904 0
0.49675 0.653401 0
0.359783 0.00811792 0
0.37141 0.0241096 0
0.335887 0.598254 0
0.696127 0.813501 0
0.530778 0.76397 0
0.629505 0.676992 0
0.084048 0.268593 0
0.835017 0.263527 0
0.631336 0.957823 0
0.0184332 0.227515 0
0.393719 0.11594 0
0.983551 0.687643 0
0.925596 0.848048 0
0.610858 0.914823 0
0.176519 0.51854 0
0.667104 0.529283 0
0.0244453 0.777612 0
0.850612 0.989288 0
0.935148 0.206824 0
0.979522 0.651509 0
0.905301 0.11536 0
0.728599 0.185369 0
0.345073 0.51738 0
0.821375 0.622059 0
0.0561541 0.822718 0
0.0833766 0.819239 0
0.961974 0.271645 0
0.263253 0.623554 0
0.74572 0.644795 0
0.027253 0.511216 0
0.0534074 0.280038 0
0.0342112 0.988647 0
0.41731 0.926969 0
0.496719 0.533799 0
0.556169 0.470748 0
0.1348 0.360149 0
0.20896 0.0562151 0
0.928465 0.783959 0
0.157964 0.643696 0
0.575426 0.476241 0
0.597522 0.527635 0
0.0599994 0.381024 0
0.504746 0.849391 0
0.239723 0.580584 0
0.168462 0.635609 0
0.855678 0.889309 0
0.532609 0.392834 0
0.872829 0.457442 0
0.5103 0.79049 0
0.557085 0.165654 0
0.924833 0.462508 0
0.194464 0.0919828 0
0.234016 0.459822 0
0.85931 0.83224 0
0.693899 0.384167 0
0.137486 0.95526 0
0.117893 0.734886 0
0.211249 0.374065 0
0.888577 0.499832 0
0.211035 0.914457 0
0.37672 0.521867 0
0.241768 0.861782 0
0.425855 0.671682 0
0.988769 0.767998 0
0.0565203 0.358592 0
0.310221 0.299234 0
0.0481582 0.410871 0
0.722251 0.405866 0
0.554003 0.855708 0
0.18244 0.596149 0
0.405225 0.631581 0
0.079104 0.594501 0
0.261116 0.763054 0
0.831294 0.165777 0
0.261055 0.0298471 0
0.00650044 0.387097 0
0.334605 0.661306 0
0.36259 0.147649 0
0.826197 0.0874355 0
0.71923 0.158818 0
0.590472 0.278085 0
0.065981 0.255043 0
0.214576 0.700827 0
0.813074 0.266854 0
0.523606 0.42964 0
0.590533 0.24778 0
0.025605 0.435011 0
0.503037 0.335582 0
0.452223 0.587054 0
0.245521 0.0298776 0
0.0512101 0.40257 0
0.986755 0.166784 0
0.787439 0.0677511 0
0.426435 0.372173 0
0.107883 0.767388 0
0.932646 0.274697 0
0.427808 0.851894 0
0.165441 0.259896 0
0.993591 0.873653 0
0.093173 0.0463271 0
0.278817 0.0236518 0
0.807459 0.865535 0
0.569964 0.999817 0
0.0433058 0.526505 0
0.897519 0.837977 0
0.810724 0.146275 0
0.969298 0.737388 0
0.043611 0.827967 0
0.261849 0.411451 0
0.67272 0.066805 0
0.92645 0.994934 0
0.0285958 0.166662 0
0.665426 0.0392163 0
0.980895 0.446883 0
0.23603 0.62685 0
0.720054 0.521867 0
0.7369 0.136113 0
0.588336 0.434004 0
0.334391 0.687521 0
0.86523 0.921323 0
0.584521 0.803125 0
0.914792 0.601154 0
0.00662252 0.309915 0
0.600177 0.351299 0
0.0656758 0.0187384 0
0.372265 0.669332 0
0.218604 0.209723 0
0.938108 0.29194 0
0.181524 0.45558 0
0.91586 0.855281 0
0.0739769 0.814203 0
0.382397 0.877316 0
0.596301 0.921506 0
0.719535 0.844081 0
0.896359 0.0159307 0
0.665304 0.680471 0
0.282052 0.42613 0
0.976897 0.386944 0
0.436048 0.55208 0
0.610828 0.123814 0
0.288095 0.872402 0
0.827052 0.523728 0
0.202429 0.00781274 0
0.123203 0.514115 0
0.635548 0.372723 0
0.405194 0.430616 0
0.920835 0.445692 0
0.300211 0.702689 0
0.336802 0.190588 0
0.0186468 0.89288 0
0.114383 0.65923 0
0.671316 0.370586 0
0.540178 0.306864 0
0.447493 0.402326 0
0.811457 0.0519425 0
0.561113 0.938688 0
0.799432 0.611225 0
0.370281 0.880245 0
0.377209 0.141331 0
0.57738 0.102908 0
0.468093 0.718589 0
0.915006 0.0247505 0
0.471084 0.687582 0
0.224677 0.994446 0
0.219337 0.410443 0
0.334666 0.2837 0
0.128483 0.447615 0
0.642354 0.964599 0
0.690207 0.701407 0
0.808313 0.452223 0
0.968017 0.554003 0
0.467879 0.995422 0
0.251259 0.530442 0
0.366527 0.895352 0
0.523392 0.518754 0
0.825312 0.734428 0
0.901181 0.0773949 0
0.942534 0.395734 0
0.700583 0.862392 0
0.438307 0.155034 0
0.286172 0.704398 0
0.547624 0.62627 0
0.359722 0.367718 0
0.868618 0.841639 0
0.84463 0.522141 0
0.572222 0.247841 0
0.0222175 0.9588 0
0.879269 0.899655 0
0.0764489 0.581469 0
0.211524 0.631825 0
0.702811 0.204749 0
0.922849 0.49086 0
0.937925 0.689688 0
0.0163579 0.207831 0
0.866451 0.448866 0
0.754784 0.993439 0
0.36079 0.851924 0
0.568896 0.436415 0
0.510544 0.562365 0
0.171667 0.787103 0
0.897275 0.337626 0
0.283425 0.406598 0
0.371807 0.323222 0
0.874569 0.663411 0
0.489181 0.37196 0
0.332255 0.0586261 0
0.2584 0.420301 0
0.457137 0.860775 0
0.362743 0.452132 0
0.696341 0.0316172 0
0.506973 0.0820338 0
0.519089 0.724631 0
0.0479446 0.288827 0
0.341136 0.136204 0
0.564531 0.330576 0
0.904355 0.992645 0
0.523209 0.372753 0
0.517411 0.452162 0
0.6957 0.860469 0
0.0644246 0.704886 0
0.484756 0.165838 0
0.186987 0.0510269 0
0.814539 0.542558 0
0.546648 0.738914 0
0.741356 0.917722 0
0.573504 0.343944 0
0.441755 0.553179 0
0.60744 0.97 0
0.733604 0.107181 0
0.838221 0.0540788 0
0.786645 0.12775 0
0.950621 0.0561541 0
0.178686 0.508621 0
0.880856 0.814478 0
0.9541 0.939848 0
0.590655 0.848567 0
0.839808 0.883267 0
0.265206 0.390545 0
0.27665 0.104984 0
0.841029 0.426344 0
0.420637 0.295694 0
0.27015 0.527818 0
0.77163 0.809778 0
0.42732 0.757134 0
0.585009 0.055269 0
0.0652791 0.424635 0
0.722983 0.565416 0
0.725791 0.981841 0
0.101321 0.282571 0
0.0116276 0.829737 0
0.38844 0.0870388 0
0.126347 0.325114 0
0.112156 0.10062 0
0.0876797 0.764885 0
0.831568 0.797327 0
0.521134 0.630329 0
0.528794 0.451521 0
0.439894 0.872585 0
0.878658 0.955565 0
0.917478 0.519852 0
0.550645 0.537645 0
0.0586566 0.388745 0
0.200934 0.41139 0
0.176397 0.179998 0
0.309885 0.888241 0
0.579028 0.740349 0
0.52147 0.983947 0
0.875912 0.771538 0
0.641011 0.0506302 0
0.206397 0.768029 0
0.947233 0.465468 0
0.299142 0.4644 0
0.975249 0.906949 0
0.767541 0.573748 0
0.42616 0.250557 0
0.547807 0.0982391 0
0.36021 0.61504 0
0.886044 0.99353 0
0.329142 0.58977 0
0.780206 0.467391 0
0.604389 0.17539 0
0.283395 0.695029 0
0.157109 0.468642 0
0.574877 0.230995 0
0.546617 0.622211 0
0.204627 0.900235 0
0.372967 0.111637 0
0.418531 0.448317 0
0.450667 0.83993 0
0.969115 0.733146 0
0.358745 0.111057 0
0.319559 0.73867 0
0.524766 0.00454726 0
0.64626 0.192297 0
0.497543 0.180822 0
0.546281 0.0668355 0
0.566179 0.650227 0
0.856502 0.74868 0
0.380596 0.535569 0
0.490097 0.15302 0
0.730644 0.360485 0
0.69689 0.56801 0
0.139286 0.894314 0
0.653859 0.508103 0
0.426954 0.0846583 0
0.791955 0.358806 0
0.90228 0.109561 0
0.765252 0.0936918 0
0.336497 0.0794397 0
0.469466 0.844783 0
0.377239 0.421216 0
0.0148625 0.607532 0
0.557787 0.475051 0
0.0612201 0.862484 0
0.558367 0.335307 0
0.41966 0.393292 0
0.875942 0.466872 0
0.328867 0.0840785 0
0.55797 0.128086 0
0.311106 0.976043 0
0.157292 0.131718 0
0.0145878 0.365093 0
0.563738 0.974822 0
0.948576 0.222205 0
0.868923 0.869259 0
0.516984 0.716727 0
0.920652 0.703696 0
0.257546 0.124851 0
0.723014 0.46849 0
0.691794 0.903867 0
0.338145 0.17481 0
0.692953 0.213752 0
0.446638 0.799066 0
0.777642 0.667501 0
0.222022 0.284005 0
0.227393 0.590655 0
0.676168 0.12775 0
0.446913 0.572527 0
0.131504 0.591845 0
0.464492 0.589221 0
0.976745 0.0597858 0
0.981536 0.480331 0
0.3614 0.577349 0
0.877071 0.0604266 0
0.986908 0.10538 0
0.573595 0.646535 0
0.648854 0.517167 0
0.170537 0.282662 0
0.68807 0.870998 0
0.751396 0.443434 0
0.00567644 0.989257 0
0.771142 0.496719 0
0.799158 0.87579 0
0.92993 0.707907 0
0.675222 0.00186163 0
0.439192 0.0661031 0
0.295938 0.993133 0
0.0868862 0.713981 0
176 132 337 
344 337 998 
337 132 998 
132 438 998 
344 998 947 
998 438 947 
132 255 438 
438 211 947 
344 947 893 
947 211 893 
537 344 893 
211 496 893 
537 893 848 
848 893 951 
192 951 933 
951 893 933 
68 881 960 
951 960 848 
960 881 848 
68 960 192 
960 951 192 
572 192 933 
929 933 893 
929 274 933 
274 572 933 
496 929 893 
427 643 743 
848 644 537 
848 616 644 
743 848 881 
616 848 643 
848 743 643 
717 743 881 
717 427 743 
881 118 717 
427 717 732 
235 732 118 
732 717 118 
235 427 732 
176 935 508 
935 239 508 
176 337 935 
337 643 935 
643 239 935 
616 643 644 
643 537 644 
643 337 537 
427 239 643 
337 344 537 
508 476 887 
476 40 887 
284 887 538 
887 470 538 
887 40 470 
284 938 887 
938 508 887 
239 476 508 
284 171 938 
176 508 255 
171 182 938 
508 938 853 
853 938 918 
938 182 918 
255 508 853 
255 132 176 
227 785 521 
235 679 785 
521 785 864 
358 864 679 
864 785 679 
521 864 180 
180 864 694 
864 358 694 
227 427 785 
427 235 785 
636 319 911 
319 491 911 
491 755 911 
491 555 755 
555 440 755 
755 127 911 
127 636 911 
319 636 470 
636 127 470 
319 40 491 
476 491 40 
555 997 440 
997 81 440 
476 555 491 
288 755 852 
755 440 852 
288 752 755 
752 127 755 
81 588 852 
852 588 288 
440 81 852 
157 227 767 
227 605 767 
227 16 605 
605 191 767 
157 767 10 
767 160 10 
767 191 160 
191 605 742 
605 16 742 
180 343 521 
343 140 521 
521 140 227 
358 679 413 
679 118 413 
235 118 679 
140 16 227 
584 588 5 
588 81 5 
288 588 598 
588 584 598 
598 37 288 
871 950 200 
950 92 200 
950 630 92 
759 37 871 
37 598 871 
871 200 759 
598 584 871 
630 950 735 
950 584 735 
871 584 950 
32 735 5 
735 584 5 
630 735 721 
735 32 721 
721 292 630 
92 630 873 
630 292 873 
462 210 782 
210 315 782 
111 782 563 
782 315 563 
111 462 782 
406 470 127 
470 406 538 
40 319 470 
538 406 563 
406 409 563 
409 111 563 
315 538 563 
171 802 182 
802 45 182 
171 284 802 
284 538 802 
538 315 802 
315 210 802 
210 961 802 
961 45 802 
288 37 752 
37 409 752 
409 127 752 
409 406 127 
37 979 409 
979 111 409 
307 112 997 
112 81 997 
997 249 307 
239 997 476 
997 555 476 
239 249 997 
307 214 112 
227 157 427 
157 1 427 
239 1 249 
1 2 249 
579 307 777 
307 249 777 
44 804 249 
804 777 249 
819 804 874 
804 44 874 
819 874 309 
874 596 309 
309 342 819 
777 804 986 
804 819 986 
579 777 986 
342 986 819 
628 986 872 
342 156 986 
156 872 986 
628 579 986 
797 872 721 
872 156 721 
797 628 872 
32 797 721 
32 5 797 
5 112 797 
112 628 797 
579 628 214 
628 112 214 
214 307 579 
1 239 427 
524 280 542 
280 24 542 
542 8 524 
8 49 524 
524 548 280 
548 443 280 
524 49 548 
443 165 280 
62 280 357 
280 165 357 
62 231 280 
231 517 280 
517 24 280 
165 129 357 
129 242 357 
46 604 740 
266 740 516 
740 242 516 
740 604 242 
740 266 990 
266 977 990 
977 314 990 
46 990 894 
990 314 894 
46 740 990 
449 621 46 
621 604 46 
449 204 621 
204 62 621 
62 357 621 
604 621 242 
621 357 242 
124 11 963 
11 421 963 
421 443 963 
895 400 963 
400 124 963 
343 180 895 
180 400 895 
548 895 443 
443 895 963 
548 49 895 
49 341 895 
341 343 895 
421 165 443 
421 575 165 
575 129 165 
170 575 11 
575 421 11 
129 575 906 
575 170 906 
343 341 742 
191 742 160 
742 341 160 
343 742 140 
742 16 140 
221 160 341 
49 8 341 
8 221 341 
31 10 221 
10 160 221 
8 31 221 
256 291 728 
291 723 728 
223 828 453 
828 723 453 
728 828 926 
282 926 567 
567 926 223 
926 828 223 
282 256 926 
256 728 926 
728 723 828 
33 340 256 
340 291 256 
340 173 291 
391 597 624 
597 243 624 
391 291 597 
243 122 766 
624 766 619 
766 122 619 
624 243 766 
857 391 868 
391 624 868 
229 868 619 
868 624 619 
857 868 957 
868 229 957 
229 505 957 
505 857 957 
505 391 857 
14 730 183 
730 633 183 
453 391 795 
391 505 795 
795 14 453 
505 730 795 
730 14 795 
505 229 730 
689 859 561 
859 229 561 
730 859 847 
847 859 354 
859 689 354 
730 229 859 
354 150 847 
730 847 633 
633 847 736 
847 150 736 
453 723 391 
723 291 391 
291 173 597 
173 30 597 
30 243 597 
223 453 183 
453 14 183 
223 228 567 
228 486 567 
282 567 107 
567 486 107 
486 63 640 
28 640 393 
393 640 368 
640 63 368 
28 351 640 
107 486 937 
486 640 937 
863 937 351 
937 640 351 
692 107 942 
107 937 942 
942 301 692 
937 863 942 
486 228 63 
918 961 532 
961 942 532 
918 45 961 
301 942 961 
863 351 942 
351 532 942 
532 853 918 
182 45 918 
255 853 438 
853 532 438 
241 822 41 
41 822 479 
822 28 479 
241 378 822 
532 822 438 
822 211 438 
822 378 211 
532 28 822 
532 351 28 
210 301 961 
692 923 107 
923 264 107 
692 301 923 
210 923 301 
353 264 936 
462 936 923 
936 264 923 
462 111 936 
295 936 431 
936 111 431 
135 936 974 
936 295 974 
936 135 353 
210 462 923 
37 431 979 
431 111 979 
394 295 722 
295 431 722 
200 722 759 
37 759 431 
759 722 431 
394 722 664 
722 200 664 
33 256 353 
256 264 353 
135 33 353 
107 264 282 
282 264 256 
63 223 183 
223 63 228 
69 970 593 
970 68 593 
572 856 192 
192 856 68 
856 593 68 
496 653 929 
653 274 929 
572 274 720 
274 458 720 
572 720 856 
593 973 639 
973 791 639 
593 856 973 
856 720 973 
791 973 589 
973 720 589 
378 50 801 
50 458 801 
458 274 801 
274 653 801 
653 378 801 
589 22 791 
22 326 791 
639 791 416 
791 326 416 
458 50 720 
50 589 720 
614 639 66 
639 416 66 
614 593 639 
66 518 614 
69 614 500 
614 518 500 
69 593 614 
25 416 88 
416 326 88 
66 416 261 
416 25 261 
473 906 500 
906 170 500 
331 500 376 
500 170 376 
331 69 500 
518 473 500 
124 376 11 
376 170 11 
400 180 694 
331 376 694 
376 400 694 
358 413 694 
413 331 694 
376 124 400 
413 881 970 
881 68 970 
413 118 881 
69 331 970 
331 413 970 
136 137 412 
137 261 412 
25 412 261 
137 66 261 
472 582 623 
582 212 623 
136 623 369 
623 212 369 
359 472 623 
412 623 136 
278 359 708 
359 623 708 
412 708 623 
212 582 977 
582 314 977 
582 153 314 
472 415 582 
415 153 582 
472 359 530 
359 275 530 
495 771 695 
807 695 905 
695 771 905 
700 807 905 
298 905 771 
298 678 905 
678 700 905 
751 807 880 
807 700 880 
695 807 849 
807 751 849 
415 700 314 
700 678 314 
472 880 415 
880 700 415 
844 880 530 
880 472 530 
844 751 880 
117 695 779 
751 779 849 
779 695 849 
530 414 844 
414 779 844 
779 751 844 
117 779 914 
779 414 914 
495 695 207 
695 117 207 
275 166 530 
166 414 530 
516 242 769 
473 769 906 
769 242 906 
212 977 369 
977 137 369 
137 977 769 
977 516 769 
977 266 516 
518 66 769 
66 137 769 
473 518 769 
137 136 369 
906 242 129 
22 589 241 
241 589 378 
589 50 378 
41 22 241 
496 211 653 
211 378 653 
57 200 92 
309 949 342 
949 289 342 
289 156 342 
874 44 983 
44 541 983 
541 987 983 
987 450 983 
450 874 983 
450 596 874 
450 21 596 
663 949 596 
949 309 596 
596 441 663 
596 21 441 
663 348 949 
348 289 949 
21 348 441 
441 348 663 
292 721 506 
506 721 289 
721 156 289 
348 716 506 
506 716 748 
716 321 748 
506 289 348 
748 292 506 
348 21 661 
661 21 734 
21 450 734 
17 661 734 
113 131 661 
131 348 661 
617 113 661 
17 617 966 
617 661 966 
661 17 966 
131 321 716 
348 131 716 
57 321 169 
169 321 512 
321 131 512 
748 57 873 
57 92 873 
748 321 57 
292 748 873 
375 574 387 
574 103 387 
375 96 574 
333 311 387 
375 726 373 
373 726 650 
726 311 650 
375 387 726 
387 311 726 
103 169 387 
169 333 387 
373 96 375 
608 373 650 
113 650 512 
650 333 512 
650 311 333 
113 608 650 
113 224 608 
224 144 608 
373 608 96 
608 466 96 
608 144 466 
58 96 466 
144 85 466 
85 58 466 
131 113 512 
333 169 512 
374 169 833 
169 103 833 
833 103 974 
103 164 974 
295 374 833 
295 833 974 
164 135 974 
200 57 664 
374 664 169 
664 57 169 
374 394 664 
374 295 394 
105 569 599 
568 626 569 
626 599 569 
105 447 569 
447 523 569 
493 626 366 
626 568 366 
493 599 626 
105 599 948 
599 493 948 
523 103 569 
568 569 574 
569 103 574 
523 447 943 
447 299 943 
299 710 943 
710 352 943 
352 523 943 
103 523 267 
267 523 547 
523 352 547 
568 574 179 
574 96 179 
179 366 568 
432 105 948 
493 366 948 
432 948 58 
948 179 58 
948 366 179 
697 270 794 
270 513 794 
547 352 794 
352 697 794 
317 794 513 
317 547 794 
388 149 710 
149 697 710 
697 352 710 
149 270 697 
317 787 547 
787 30 547 
173 267 547 
30 173 547 
299 388 710 
432 545 447 
545 299 447 
504 545 283 
545 432 283 
504 299 545 
84 812 283 
812 504 283 
84 65 812 
971 992 595 
992 922 595 
504 992 299 
992 388 299 
992 971 388 
504 922 992 
595 79 971 
812 65 922 
451 994 65 
994 922 65 
595 922 994 
525 994 451 
525 758 994 
758 595 994 
812 922 504 
554 430 971 
430 484 971 
484 388 971 
79 554 971 
79 48 554 
554 48 430 
484 149 388 
105 432 447 
58 168 432 
168 488 533 
283 533 882 
533 837 882 
283 882 84 
882 837 84 
488 789 837 
789 38 837 
38 690 837 
837 533 488 
690 84 837 
168 533 432 
533 283 432 
65 84 959 
84 690 959 
296 959 38 
959 690 38 
65 959 701 
959 296 701 
96 58 179 
7 74 430 
149 484 436 
484 74 436 
484 430 74 
430 48 468 
48 39 468 
7 430 468 
468 39 658 
39 350 658 
946 989 683 
989 167 683 
683 379 946 
379 7 946 
7 468 946 
350 618 658 
468 658 946 
167 989 618 
989 658 618 
946 658 989 
270 436 513 
436 74 513 
74 317 513 
270 149 436 
317 74 787 
74 219 787 
122 787 219 
122 243 787 
787 243 30 
33 164 340 
173 340 267 
340 164 267 
164 103 267 
33 135 164 
669 485 770 
485 361 770 
738 770 224 
770 361 224 
738 669 770 
617 738 113 
738 224 113 
617 669 738 
17 669 617 
88 326 808 
326 300 808 
300 326 155 
155 326 479 
326 22 479 
286 300 917 
300 155 917 
286 147 300 
147 808 300 
41 479 22 
125 155 368 
155 252 368 
368 252 393 
28 393 479 
393 252 479 
252 155 479 
368 63 125 
155 125 917 
125 535 917 
535 286 917 
535 4 883 
4 238 883 
238 286 883 
286 535 883 
557 286 845 
286 442 845 
594 444 845 
444 526 845 
845 442 594 
526 232 845 
232 557 845 
286 238 442 
278 808 557 
808 147 557 
557 232 278 
147 286 557 
4 535 590 
535 125 590 
63 183 590 
183 4 590 
125 63 590 
4 183 633 
736 442 633 
442 4 633 
1 157 31 
157 10 31 
412 25 708 
25 88 708 
278 708 808 
708 88 808 
162 278 232 
278 162 359 
162 275 359 